LAMMPS data file for polymer

700 atoms
600 bonds

1 atom types
1 bond types

-8 8 xlo xhi
-8 8 ylo yhi
-8 8 zlo zhi

Masses

1 1

Atoms

1 1 1 0.0 0.0 0.0
2 1 1 0.1893852590566773 0.7085709339192141 0.6701526264440991
3 1 1 0.9209840083393319 1.407426783616366 0.12786990586133695
4 1 1 0.41581514950855736 0.7308091068002874 -0.4494571650746393
5 1 1 -0.13247932526831185 0.5625443445477631 -1.1272136742413907
6 1 1 -0.8015013559320343 0.7039568878377602 -1.729269149357384
7 1 1 -1.4722594616711449 0.7407973083070278 -1.1220821043909748
8 2 1 -1.6969571066250917 0.06953495371211482 -0.4782702373035068
9 2 1 -1.0919068232804976 0.34595271344348055 -0.3711785246368187
10 2 1 -1.5632324877666643 0.8643351868056901 -0.36638739849112745
11 2 1 -1.9344374894869816 1.491266294689125 0.16018207276889274
12 2 1 -1.8633157393752182 1.9554618285320626 0.6675946318074863
13 2 1 -2.5603669327473035 1.220837318324533 0.5683147035831313
14 2 1 -3.209380038478598 1.3370200209919108 0.6624909497081197
15 3 1 -3.5482100825036196 1.312093648413006 -0.08377499677013522
16 3 1 -2.867962637018025 1.2884526951455046 -0.231240315406122
17 3 1 -3.134930818706459 1.2619140523393924 -0.8237565888201965
18 3 1 -2.404840394665663 0.7034346655274126 -0.16485313936229984
19 3 1 -2.8502251761625783 -0.04506675055514897 -0.03626075183669919
20 3 1 -3.508486323459028 -0.04681143080868111 0.2410560621691592
21 3 1 -4.1429156616127 -0.49314691174695136 -0.03137874727634832
22 4 1 -3.5367694748467327 -0.5704800461939863 -0.5820126251198923
23 4 1 -4.061800663751318 -0.8395977051541434 -1.1418080528570185
24 4 1 -4.4447446953226395 -0.2963608874404873 -0.6175787464344159
25 4 1 -4.739640406486697 -0.7545252575804904 -0.2601343053478154
26 4 1 -4.920279011741516 -0.20830465459053715 0.3929706233309887
27 4 1 -4.431062873504072 -0.7367749943807624 1.0743507993684989
28 4 1 -4.822471668089848 -1.1809941225516332 0.7697190219984982
29 5 1 -4.9760706463743185 -1.4603102103568633 0.12358383947734264
30 5 1 -5.184634136770004 -1.2523101226126032 -0.5142448775920305
31 5 1 -5.738350064470581 -0.9732962686427117 0.18638117064220117
32 5 1 -6.179987025630874 -0.2733165809147239 -0.4514678626066331
33 5 1 -6.894662010087249 0.36529872723550094 -0.9448690353346347
34 5 1 -6.1573245885329335 0.8896812755818863 -1.572958672607463
35 5 1 -6.447650860493954 0.890777786567516 -0.92428116821195
36 6 1 -7.106425237623923 1.6376806728935263 -1.1890617124024117
37 6 1 -7.1861071177429405 2.349073245456143 -0.9339272345574989
38 6 1 -6.814219411350212 2.116072017616707 -1.5083235266814061
39 6 1 -6.495431105776634 2.326938495162561 -1.9712223929349868
40 6 1 -6.628861385022686 2.7089381664347334 -2.549668936383191
41 6 1 -6.407247715156356 3.4551014346938778 -2.778757053578097
42 6 1 -6.408703958664339 3.478306796814176 -2.0798520885909166
43 7 1 -6.321267975189986 4.171028906048777 -2.413054542023672
44 7 1 -5.584778665607353 3.680404479348169 -2.6243848538757537
45 7 1 -6.227502620946876 3.10925365828036 -3.2966644305970396
46 7 1 -6.065461185984211 3.8369746628567545 -3.7849052678747483
47 7 1 -6.712686783466441 3.8672000469489163 -4.319487256259944
48 7 1 -7.4602506754586235 4.152503180586811 -4.435267552687968
49 7 1 -8.091831153252063 4.839076694003512 -3.7241791549053653
50 8 1 -8.313160490918152 4.52824204220314 -3.0225843970586324
51 8 1 -7.667963538407263 4.215838258615166 -3.6412367730451995
52 8 1 -7.526516419916651 4.929180212565705 -3.171980462912905
53 8 1 -8.14932506815686 5.491509287269762 -2.7022746947344576
54 8 1 -8.841359950555825 5.457530269418915 -2.17963316897425
55 8 1 -9.576558651478 4.875356941769619 -2.9258510412363776
56 8 1 -9.4152637364903 4.185073907463376 -3.061325477313147
57 9 1 -9.574994803636434 3.6612306974228535 -2.773987578179028
58 9 1 -10.190627613725074 3.470910509403703 -3.046404858405367
59 9 1 -10.401265751924809 2.8539034920593194 -3.6095257092443047
60 9 1 -10.720501410486733 3.29351607002105 -4.102182442183797
61 9 1 -10.480142855200803 2.6119468051482646 -4.209882319141928
62 9 1 -10.333761578176196 2.1478611886280565 -3.7429309433373676
63 9 1 -9.89049508450448 1.6565138834192075 -4.271043917553855
64 10 1 -9.362262531489026 2.3386156111689904 -4.891373346675506
65 10 1 -10.04540909479018 2.5332182075097394 -5.3077568639432195
66 10 1 -9.76360969097831 2.4468360768545936 -5.865235754475195
67 10 1 -9.573895415260568 3.1331379452089836 -5.846550763875127
68 10 1 -9.367198442006453 2.441030360590376 -6.523769475098739
69 10 1 -10.04972004630392 2.3083703550311956 -6.6779887185765645
70 10 1 -10.313794370615353 1.7287681468264473 -6.036335683854405
71 11 1 -10.73130336473693 1.921453418635673 -6.649848702739875
72 11 1 -10.029311373538375 1.7624404562842475 -7.079480390573043
73 11 1 -10.03215433060926 1.1154606368788849 -7.525329643938325
74 11 1 -9.337926788719248 1.7764013277049766 -6.9841668077297765
75 11 1 -9.121850425472982 1.2193857017488547 -7.142034146862491
76 11 1 -8.50782615086076 1.3061589956210085 -6.543464600664115
77 11 1 -8.717414431815541 1.831360394065684 -6.112348158762648
78 12 1 -8.88263870376368 2.2073241183843972 -5.445411113754821
79 12 1 -9.471028297030612 1.7146484306326624 -5.713846160136043
80 12 1 -8.89701404545806 1.557485097048148 -5.190907157787382
81 12 1 -8.16345935504488 1.5618130828125734 -4.783396274256758
82 12 1 -7.632755597799954 1.1911426525606794 -5.453364352549448
83 12 1 -8.049857265392264 1.614921278117452 -5.98455103625424
84 12 1 -8.1395207216789 2.353607811702456 -6.223372851313166
85 13 1 -8.191168824833094 1.8552071342120486 -6.685254397128248
86 13 1 -7.659239410434921 1.5903450759685418 -6.78502260606305
87 13 1 -7.706196282689282 2.293522683262803 -7.5087792576197705
88 13 1 -7.427828213500934 2.7196408825248115 -6.783589589524509
89 13 1 -7.878914290981633 3.1197395287651757 -6.446053762352797
90 13 1 -7.91858459337662 2.8693166510489343 -5.770779789798581
91 13 1 -7.419649178815269 3.3534668675542267 -5.735529108678531
92 14 1 -6.740204175235217 4.05831034025611 -5.424273470866794
93 14 1 -7.018086190331262 4.726937850264134 -6.022163621969098
94 14 1 -7.009194682513859 5.095863988591347 -5.494522569446287
95 14 1 -7.715733263361695 4.599951961002797 -5.625069832036522
96 14 1 -8.31075622674291 3.951449711959943 -5.136008269027844
97 14 1 -8.646115382231526 3.545740353690829 -4.431480091655447
98 14 1 -8.140759086061468 3.7802926465300395 -3.8509403740191717
99 15 1 -8.733149808520956 3.9961857764549773 -3.706706123202892
100 15 1 -9.055475077513787 4.243324836331623 -4.196887680014973
101 15 1 -9.761921754553018 3.72315177692835 -3.4709199697577264
102 15 1 -9.666030153995637 3.3007669718175014 -3.8882269929305737
103 15 1 -10.052799972612618 3.65916380488328 -4.575655323528428
104 15 1 -10.319100618274312 3.9681961782521524 -3.9685616167183158
105 15 1 -9.62925130383708 4.567721471826235 -4.287094148297571
106 16 1 -9.487864089110355 5.260307702767797 -4.486052409860186
107 16 1 -9.158627990751487 5.926847943021153 -4.502528077759993
108 16 1 -8.495747408763712 6.22410111980904 -3.950769207525493
109 16 1 -7.917042388998208 5.950837233481865 -3.547245089691065
110 16 1 -8.546057812794922 5.912773176080919 -3.028891005015579
111 16 1 -8.81163816516953 5.656988133488404 -3.536630337287913
112 16 1 -8.855102653534054 5.054794117624426 -3.223111558346123
113 17 1 -9.283167892002377 4.826905855156276 -3.6169147112312388
114 17 1 -9.897794840408928 5.417824653949439 -4.05392103214918
115 17 1 -9.489283584907518 5.655640812063579 -3.3072468866985356
116 17 1 -10.151565310845516 5.928943466608486 -3.5035344257135517
117 17 1 -10.753730212103907 6.275552772378228 -3.5809745504301183
118 17 1 -10.347346235599945 6.463383210784777 -3.987403080303086
119 17 1 -10.843201803743122 6.947275190301513 -4.044597068468883
120 18 1 -10.768417247303562 7.570231392028944 -3.9212948602145334
121 18 1 -11.23231839423689 8.084589752191057 -4.107425641770673
122 18 1 -10.64555843883417 8.761958485995082 -3.8405072577635564
123 18 1 -10.854523675272496 9.33963953936619 -3.312558264160524
124 18 1 -11.114004355797803 10.007210685823782 -2.781302286910818
125 18 1 -11.621880867665311 9.31803203010272 -2.1542369012592713
126 18 1 -11.041799650747873 9.041074163900934 -1.4876897930305057
127 19 1 -11.558911394877269 8.335238366421848 -1.177092082447589
128 19 1 -11.353274772040601 8.6787498718828 -0.7009186460769367
129 19 1 -10.723800715933706 8.38455311735018 -0.7341784292609029
130 19 1 -11.445955591260734 8.186327478884412 -0.18703573689862274
131 19 1 -11.955200275452524 8.514857956702125 0.15487297176045495
132 19 1 -11.387858843281446 8.172549551613612 0.7953001675564446
133 19 1 -10.82331037817426 8.188892725264543 0.11809879649657629
134 20 1 -10.46216919915443 8.85922274214952 0.29607698397865495
135 20 1 -10.728873811743632 8.926093884213529 -0.3694691793901111
136 20 1 -10.802377165058694 9.66112100838343 -0.19168672894396083
137 20 1 -10.221572697835102 9.788075154964753 -0.707922640736909
138 20 1 -10.930236351246512 10.265127253385748 -0.20864625824589073
139 20 1 -11.129483800105968 10.230736273257612 0.36801114855444755
140 20 1 -11.847524760877278 9.661928024660773 0.15594122476040417
141 21 1 -11.718630424471863 9.718873211057788 -0.44661802317501276
142 21 1 -12.324751759514827 10.411286170800588 -0.6893139690326935
143 21 1 -12.757577789420843 9.969406435204695 -0.15977490525000626
144 21 1 -12.342793765714333 10.447864865697207 0.41211598841431685
145 21 1 -13.009495056160292 10.468968783125048 0.0668126759076551
146 21 1 -12.459454201856957 10.000877154016097 0.8112543956675027
147 21 1 -12.461675652498215 9.387007724298545 1.4352277448052218
148 22 1 -12.963387265888104 9.080974205099459 0.8166574841228875
149 22 1 -12.251487097564132 8.529549480781622 1.0696192327602558
150 22 1 -12.876455638529375 8.133616194769882 1.1722528001059156
151 22 1 -13.454018768521788 8.24125906665669 0.579673978978048
152 22 1 -13.782105542588042 7.710892340254562 0.031064425052330202
153 22 1 -13.821951399860547 8.16019268208855 -0.6188853287547458
154 22 1 -14.296087004115178 8.881106131052332 -0.17877543658239736
155 23 1 -13.847124672399918 9.329718863982608 -0.12654993698303524
156 23 1 -13.232635769385283 9.1461376329898 -0.6677996512501423
157 23 1 -13.028196695697925 9.66106847978881 -1.2139916646572255
158 23 1 -13.14449392783523 9.778551938934598 -1.8985908949618922
159 23 1 -12.666937135553765 10.322077964326514 -2.326258111766693
160 23 1 -12.758537966694364 10.49253937001979 -3.022952175985259
161 23 1 -13.18678120313592 11.105664086447328 -2.799563631451391
162 24 1 -13.559612155602244 10.611207438975125 -2.882797569839971
163 24 1 -14.039331672036242 10.899476946136284 -3.5531962923139204
164 24 1 -14.538748141211554 11.619669683949365 -4.243759843251439
165 24 1 -15.037639793028141 11.414032047105621 -4.7559867185559765
166 24 1 -15.593475980786966 12.038922002344187 -4.406161866932565
167 24 1 -16.33818320983289 11.381203378643553 -3.6702895271078164
168 24 1 -15.673396912934379 11.461740883747646 -3.693615847749599
169 25 1 -15.129971585412964 11.392100181675623 -3.0675826409970037
170 25 1 -15.849537523302798 11.451816129502122 -2.779858539226761
171 25 1 -16.008439665366545 11.668086975965064 -2.205683601821249
172 25 1 -16.572680882391953 11.414597454103863 -2.5091658424009933
173 25 1 -16.35265852311768 12.058470015254082 -2.7818610671081334
174 25 1 -16.82034611322679 11.846991555767763 -3.342064935364431
175 25 1 -17.143587802878262 12.202566851758096 -2.7064715392278766
176 26 1 -16.76067655976538 12.651551572836306 -2.1555076948099825
177 26 1 -16.15870029270502 13.037952260858777 -1.8189588170233335
178 26 1 -15.931712231409579 13.73001539766212 -1.732348010004939
179 26 1 -16.03873874786513 13.868872986878241 -1.0813406593978865
180 26 1 -15.503988616749503 14.225695683823881 -1.738725249083092
181 26 1 -15.716812462693047 14.111522661522773 -2.371615285658995
182 26 1 -16.17556123628149 14.61201441313301 -2.400608479414402
183 27 1 -16.84579316257789 14.67190262913653 -2.7555128043559787
184 27 1 -17.314484872480126 14.917769903652651 -3.2443531671568313
185 27 1 -17.747461759650612 14.244635013293678 -3.8068226124134177
186 27 1 -18.038438134563716 14.760262316155972 -4.073854604210776
187 27 1 -18.30303688493291 14.9830680667291 -3.390258480187337
188 27 1 -18.886299010289733 14.25180054847056 -2.8314365968254416
189 27 1 -18.705381694249432 14.821051910654887 -2.145597925741668
190 28 1 -19.319517770444108 14.539607866091634 -2.3469671323746306
191 28 1 -18.932701708723673 14.050518204943216 -1.628237438864623
192 28 1 -18.63947191162958 13.422938904705562 -1.7326241885963274
193 28 1 -18.091475942005324 13.060673958671892 -1.8393998101125162
194 28 1 -18.411387448358088 12.698143485439383 -1.3526531790444163
195 28 1 -18.486348456419243 12.969843034116872 -0.6390659463554843
196 28 1 -18.460045070792273 13.645395949935264 -1.0320596369355233
197 29 1 -17.777917196636988 13.001494439999366 -0.6114223989825358
198 29 1 -17.60668897732632 13.515230971389474 -1.3082960524292992
199 29 1 -16.96055147154996 13.864412435039574 -1.9773655268995785
200 29 1 -16.304650787043617 14.507439790581198 -1.3966904196172774
201 29 1 -16.957456553338787 14.589340432490484 -0.8802603448025299
202 29 1 -16.461899056308443 15.090734354058073 -0.8630932226681429
203 29 1 -16.135012762489257 14.40070960255632 -0.7334783560475266
204 30 1 -16.58042245557169 15.080284833797485 -0.05749830770676345
205 30 1 -15.860284323170351 15.720678495088448 -0.4082856168175859
206 30 1 -16.586934937881725 15.96049890600881 -0.9452233631697105
207 30 1 -17.107577972020774 16.392679568381702 -1.2735219315593833
208 30 1 -16.514018876556996 15.729228955813063 -1.99747286773176
209 30 1 -15.855277746170444 15.003837168496432 -1.4491819900854193
210 30 1 -15.321923841804018 14.92122846132191 -0.8131743607376414
211 31 1 -15.425674009372479 14.351014534590647 -1.013306723974788
212 31 1 -14.761520096086988 14.857873951063901 -1.0411803893811933
213 31 1 -14.82536192953128 15.524396825171698 -1.1889074164247264
214 31 1 -15.467057833929042 15.946225501583864 -1.8901085206117896
215 31 1 -15.800443494219763 15.577549089699595 -2.352288293049234
216 31 1 -15.565592235974433 14.873252899010195 -2.680340916289466
217 31 1 -14.899929951108312 15.524162871487587 -2.9340302549803816
218 32 1 -15.446151384508822 16.00934117387247 -2.6397339883423827
219 32 1 -14.95564525568865 16.530846511882707 -2.0595621434877973
220 32 1 -14.624492139521307 17.195184032119144 -2.1797109360029063
221 32 1 -14.544633443622395 17.774331565852 -2.7933484664161226
222 32 1 -15.159385884090014 17.88542899324809 -2.089645772749372
223 32 1 -15.837797534799911 17.42829838361714 -2.099759655886446
224 32 1 -16.526908221946627 17.21119924719296 -2.097453867727054
225 33 1 -15.78565553558274 16.860391703791446 -2.4208537711812674
226 33 1 -16.227499385571498 16.53108673371065 -2.9096723182547555
227 33 1 -15.931586287454486 16.088795492679516 -3.4498611023807007
228 33 1 -15.301714025070623 16.661731466262104 -3.2537861502519423
229 33 1 -14.580232483427242 16.084535461459755 -3.723385556454199
230 33 1 -14.775056297843834 15.45780600902835 -4.041506489798634
231 33 1 -14.77975333304816 14.882285918037667 -4.428281085790139
232 34 1 -14.22099738751109 14.34062528090137 -4.821494347065979
233 34 1 -13.745270604048505 14.428070052438839 -4.347343424281934
234 34 1 -14.337650281142922 13.98778594186598 -4.059460303200688
235 34 1 -13.660872327202721 13.650377778383026 -4.63963357584514
236 34 1 -13.563402451786347 13.35466476869902 -3.94722727803126
237 34 1 -14.160545200480414 12.899618093188579 -3.2747466903591618
238 34 1 -14.021437156823033 13.42068238233598 -2.7130694460323443
239 35 1 -13.603340200544864 13.0483391011974 -3.0226911384193054
240 35 1 -13.825951760978413 12.307872603305347 -2.692629127657996
241 35 1 -14.438377602989698 12.489441219347388 -2.3322701506720986
242 35 1 -14.499608545635756 11.834193180732271 -1.9887647965295017
243 35 1 -15.032091913215586 12.17254378203581 -2.2945782738310956
244 35 1 -15.252803038142197 11.809490491492673 -1.7581181852219145
245 35 1 -15.331405911210478 11.840701060288598 -1.1319956075005133
246 36 1 -14.913554651721952 11.6452119088831 -0.6437591275424799
247 36 1 -14.599705810590741 10.936393521038566 -0.5540074442359793
248 36 1 -15.288231730229205 10.246001186357612 -0.37575005814741047
249 36 1 -14.55562617398643 10.19417770564519 -0.9335572722210581
250 36 1 -14.244841766404013 10.520059262488838 -1.3561383770601356
251 36 1 -14.039339672891442 9.808802575217927 -1.1916683319926946
252 36 1 -14.466467446988204 9.268830731700108 -1.4676605387065231
253 37 1 -15.112300935995917 9.418710462500998 -1.3573737732474331
254 37 1 -15.702954261360542 9.77542064089505 -1.783134213376162
255 37 1 -16.31994359778089 9.515689226494047 -2.2815657792387247
256 37 1 -16.536585707158704 8.91815188017778 -2.742041041595457
257 37 1 -16.437327336886 8.390086829119392 -2.0191174232618323
258 37 1 -16.060201223481027 7.742993427431221 -2.6281302308424443
259 37 1 -15.465780089463665 7.79889032975356 -2.0784948091502846
260 38 1 -14.922339566875946 7.5355010863683765 -2.4535275645691472
261 38 1 -14.938449976871869 7.9325953721853555 -1.8024348263164023
262 38 1 -15.33277324964051 8.360335264240566 -1.3237777753966269
263 38 1 -15.616146863772665 8.397176495887233 -0.7607374271754758
264 38 1 -15.256890324196112 8.31540784025907 -0.22027457271024808
265 38 1 -15.946014731349447 7.76632361573228 0.2813155195485335
266 38 1 -15.866348503793093 8.470251971772319 0.4789601086340003
267 39 1 -16.608160580045066 7.917677874681709 0.31408914364515367
268 39 1 -17.111897063656684 7.641905144041761 0.009064239309621303
269 39 1 -16.598251192379486 7.700744739870485 -0.5949648520330731
270 39 1 -16.634899566386565 8.15096033767439 -1.0097759302643279
271 39 1 -15.955012834838115 8.827915403584269 -0.40862725976223535
272 39 1 -16.373054020736763 9.228634392366954 0.3413135174634727
273 39 1 -16.505446196941136 8.506652133604456 0.11789979567736064
274 40 1 -16.983080990686883 8.133162140541934 -0.3847476975086589
275 40 1 -17.53832517588078 8.835141883418062 -0.3424258210180234
276 40 1 -18.251063765655886 9.287435827906428 0.15807005331662166
277 40 1 -18.806560635030127 8.89811526581849 -0.47942128331916006
278 40 1 -19.165502829435404 9.545748782880958 0.07051475017224024
279 40 1 -18.960795298908955 8.857579180006955 0.20803059385468825
280 40 1 -19.46260351057709 8.314031745429288 0.4691265344971189
281 41 1 -20.150863521372955 7.830813036948206 0.7831134735507455
282 41 1 -20.614399496332098 8.205776064697279 1.1438054373712374
283 41 1 -21.319614550012368 8.737799777525385 1.3830921076869913
284 41 1 -21.72733496872556 8.028574364581283 2.0310704434283453
285 41 1 -22.052822107129355 7.303802525611005 2.453108822316072
286 41 1 -21.549845797925055 6.62412265961081 2.9523034594287196
287 41 1 -20.833850200162964 6.042865592488613 2.9306847710741977
288 42 1 -20.179961702452278 6.303604843007791 3.3244384588556497
289 42 1 -19.83681068853197 5.892621663718127 3.8137458728051756
290 42 1 -19.226786773357944 6.130002025868049 3.204127194929419
291 42 1 -19.384177241479104 5.4708374793501235 3.205748359260488
292 42 1 -18.684835646766672 5.251301522837436 2.74874799735376
293 42 1 -19.145456474146552 5.604447945932955 2.124973724655036
294 42 1 -19.448836519843585 6.291872963158015 1.699618174036317
295 43 1 -19.695324326397476 5.555336669267566 1.6557199381690109
296 43 1 -19.430080338444224 4.81601231485405 1.612627810053719
297 43 1 -18.96694564489013 5.166630379068853 1.2970306320016494
298 43 1 -18.49492710954738 5.629308684905571 0.6864025220523404
299 43 1 -17.83277444486905 6.356899816061588 1.1104930889470677
300 43 1 -17.500928954833643 5.944439353161144 1.7057833970100273
301 43 1 -17.646635666033593 5.871957194460995 2.385162084520789
302 44 1 -17.19854008103621 5.233642030018681 2.203178212262557
303 44 1 -17.490105323484656 4.97546451290739 1.5957223117625394
304 44 1 -17.95094300601078 4.840824590806729 0.8611324924184465
305 44 1 -17.687262819192735 4.3055364887948135 0.5899673740419815
306 44 1 -17.201514644528782 4.124410343926745 1.2919033502143888
307 44 1 -16.791074761619146 4.595585469484483 1.3096886792168365
308 44 1 -16.041241938091535 4.456310050842416 1.7720738950807107
309 45 1 -15.942537565144113 5.1977307914526305 1.2558772737454027
310 45 1 -16.369876468289096 5.825543904519415 1.4318867896818437
311 45 1 -15.834269044183504 5.678532367467144 0.7752694904481712
312 45 1 -15.673521846997609 4.963905728082997 0.7353241560588695
313 45 1 -15.13383810592874 4.222871535185108 0.18155809959503943
314 45 1 -15.594263059835079 3.984426371714008 -0.4146785689429593
315 45 1 -15.22396870049439 3.3033143098484237 0.19722323408044873
316 46 1 -14.55036444645099 2.62429015072161 -0.49343327869001685
317 46 1 -14.626104493822305 2.1797367236682743 -1.0014969870996069
318 46 1 -14.89640149037302 1.544941220892892 -1.0698206359721247
319 46 1 -14.480169730523908 1.1092934533038248 -0.3794415571877632
320 46 1 -13.73720764761592 1.3616646362413474 0.25270200431992595
321 46 1 -13.466374423605396 1.311663763007688 0.9514476842081372
322 46 1 -13.909545829655688 1.0248182288116785 1.3997308209856003
323 47 1 -13.66995216451014 0.5296956850671496 2.0291515110558103
324 47 1 -13.30048605487336 0.09017285812787357 2.2833251589468824
325 47 1 -13.361853623446326 -0.6237320622572269 2.8462481765959664
326 47 1 -13.080242458385952 -1.313624411450978 2.480261205729633
327 47 1 -12.961138827772613 -1.7746083953699403 1.8786158299284437
328 47 1 -13.524577998943899 -2.167308927864344 1.369599340029044
329 47 1 -12.991833526683353 -2.129148485084941 0.6362219974785708
330 48 1 -13.608480240218944 -1.8249428982353815 0.2939448914066107
331 48 1 -14.216218841799249 -1.774583332147293 0.7573456000635076
332 48 1 -14.686863570692244 -2.0490286023556497 0.27702595210620307
333 48 1 -15.249316669991597 -2.1336884922321584 1.0018974128452227
334 48 1 -14.844590781956532 -1.462582664561629 0.9901511747062274
335 48 1 -15.40399705704137 -1.2050351464100886 1.663777250935162
336 48 1 -16.03074427064424 -1.645521899399606 1.9470179116850934
337 49 1 -15.758075839423348 -2.2601819311441753 1.3727843242527218
338 49 1 -15.865119759476345 -2.534143123931756 0.6305147184699245
339 49 1 -16.01560596650491 -3.1378709989718674 0.22526355539335358
340 49 1 -15.769211542671519 -3.41511207149696 -0.2943606687589552
341 49 1 -15.125466158282073 -3.302572566531307 -0.03494285688888393
342 49 1 -14.404513578078902 -3.737498420421362 0.17804155136059724
343 49 1 -14.408211686448618 -4.388492518766681 -0.3273621874973514
344 50 1 -13.838654882857856 -4.344057499811784 0.1573547347192733
345 50 1 -13.6471659127253 -4.576270417210174 -0.4743846956935789
346 50 1 -13.189745644348733 -4.294810975646417 -1.1526827707496008
347 50 1 -13.844404506226686 -4.163095554410907 -1.0405220612650132
348 50 1 -13.177341680392313 -3.4962118674769775 -0.7330636524069161
349 50 1 -13.822018517414099 -3.1193515645976744 -0.03209191630508623
350 50 1 -13.725096539215512 -3.00903315476685 0.5996817336275352
351 51 1 -13.973518075882758 -2.392913734408193 -0.016760161020828335
352 51 1 -14.082925954234883 -2.349422650555405 -0.6377578646425588
353 51 1 -14.520911915178068 -1.8530821468998224 -1.0814410410354736
354 51 1 -15.039598557089398 -1.1382428983728956 -1.5136845008700417
355 51 1 -14.881363889256386 -1.694765376831006 -1.912809578580693
356 51 1 -15.354776957810516 -1.8932620601545653 -2.4662565019940415
357 51 1 -15.96187808886871 -1.5643685094750686 -3.046190368256724
358 52 1 -15.957437476943946 -1.9541289041569527 -3.718271101831171
359 52 1 -15.224897240435325 -1.7629469324574993 -3.475651531267083
360 52 1 -14.79701588050527 -1.710449567293074 -2.8570185718780197
361 52 1 -14.12144134821958 -1.906485222516698 -2.616424758192206
362 52 1 -14.077163279238306 -1.3825460676878787 -2.057916629324725
363 52 1 -13.37264436706319 -0.6862049870855605 -2.746599079997293
364 52 1 -13.905689262937575 0.016568047541678843 -3.4230587300494206
365 53 1 -14.217841797588825 0.29936053539326984 -4.047375309480461
366 53 1 -14.72822878086252 0.40272748644397655 -4.703094794777283
367 53 1 -15.065737698923625 0.49877936581366833 -5.3695696489813205
368 53 1 -14.985266672897641 -0.2022347254874235 -4.730965221674149
369 53 1 -15.477036260858656 -0.644097772989652 -5.258812517360722
370 53 1 -16.161148077324874 -0.5630939961518964 -5.8747785773781755
371 53 1 -16.899316241873457 -1.1727946307043757 -6.55956420832054
372 54 1 -16.493312928937932 -1.7870898472942907 -7.041828244456035
373 54 1 -15.922474681075919 -1.2975124330805796 -7.085455606717621
374 54 1 -16.504537028291804 -0.9855602909153387 -7.026008898042776
375 54 1 -15.977733121283674 -0.7740693731474854 -7.550245050712932
376 54 1 -15.636058991536503 -0.12373450954584109 -7.414693261286348
377 54 1 -15.638985918866409 -0.6449493223173428 -8.073272502260354
378 54 1 -15.474096446264388 -0.6855015309969732 -8.656268806032443
379 55 1 -14.83354312379172 -1.3678050135144466 -8.09085793433778
380 55 1 -14.77241889968782 -0.7208034117835236 -8.048970906469448
381 55 1 -14.760639505910916 -0.2674982552525638 -8.486296486814789
382 55 1 -14.063693832518842 -0.26699339633357755 -8.225917172901376
383 55 1 -13.938193881303297 -0.5676694027897984 -8.894830091047275
384 55 1 -13.431849007843029 -1.1204515250674958 -8.672917452360052
385 55 1 -12.888113357645125 -1.4616585745225372 -8.909734962239137
386 56 1 -12.953514165355319 -0.9390192544647824 -9.603953995652578
387 56 1 -13.577283437990337 -0.9389216841425776 -9.432602793123916
388 56 1 -13.18587583118679 -1.5419723324994128 -10.0073174925927
389 56 1 -13.82019274725547 -1.6508945676691664 -10.253480343586983
390 56 1 -13.495522416737922 -0.9603634523351818 -10.435787795889246
391 56 1 -13.624484805310443 -0.3044672906873259 -10.514118643205457
392 56 1 -14.303790641233938 -0.9105676747737275 -9.921655612713925
393 57 1 -15.05365732498837 -1.1307005519670463 -9.72455163309731
394 57 1 -15.801846036565173 -1.3541178322358256 -10.01177602248506
395 57 1 -15.992774952138365 -1.836465121568104 -9.58313194233512
396 57 1 -15.866380470463831 -2.0563311115262475 -10.326789928022599
397 57 1 -15.573040384431732 -1.458193462762691 -11.05910188680923
398 57 1 -16.15854412503225 -0.7082308810490313 -10.369704388759578
399 57 1 -15.655945667307412 -0.8505002029465325 -11.019763510905172
400 58 1 -16.031230073279662 -0.20636907586582587 -10.825504940734502
401 58 1 -16.57057273055308 0.014158414815270026 -11.374063790807675
402 58 1 -17.2741416419524 0.6241196690595323 -11.160077712221263
403 58 1 -17.961447169190183 0.09444557967521006 -11.035358250756826
404 58 1 -18.499217850702486 -0.4176199502478991 -11.527378167284393
405 58 1 -18.49913822793118 -0.38323629222913347 -12.180931369295893
406 58 1 -18.546441984676846 -0.9680644126798233 -12.624208025396959
407 59 1 -18.946490378319197 -1.4468854068652208 -12.880499961039988
408 59 1 -18.788995868880118 -0.8660280559036684 -13.2085358591397
409 59 1 -19.271966109216958 -1.4140490684314087 -13.772178795912117
410 59 1 -18.686175357541966 -1.7310511972279083 -14.325364061316993
411 59 1 -19.336492619427254 -2.298439624882871 -14.825938282532002
412 59 1 -19.262848620690765 -2.922746303760682 -14.887003557698163
413 59 1 -19.842139068323327 -3.3689016930133646 -15.447850488819968
414 60 1 -20.5206388312218 -4.045950686580768 -16.03117038520797
415 60 1 -21.10523409456221 -3.8219777954114997 -15.947315087549093
416 60 1 -21.06346526907518 -4.1403870783157615 -15.203959857395361
417 60 1 -20.772050511380613 -4.717390455578009 -15.723116738169258
418 60 1 -20.566591067501665 -5.110018014067177 -15.078603598489751
419 60 1 -19.957559044154554 -5.437002573197004 -15.641738623677059
420 60 1 -20.606434952863367 -5.140069702776587 -16.264986157624957
421 61 1 -21.224857407708544 -4.461114606192303 -16.508699527301378
422 61 1 -21.565024378075655 -4.898440582139438 -16.051727208432922
423 61 1 -21.442994776749714 -5.579618447608333 -16.62755137298457
424 61 1 -22.07122434481541 -5.555021123414673 -17.12386630391468
425 61 1 -21.542218052237008 -5.302221262050508 -17.602652424089715
426 61 1 -20.85186018580338 -5.493695047135986 -17.161055830245875
427 61 1 -20.695952794094488 -6.077577430129812 -17.42860094140096
428 62 1 -20.38684342129203 -5.987779254780382 -16.920969873489724
429 62 1 -20.695188510186313 -6.43451443061244 -16.266341777076384
430 62 1 -20.449306149604922 -6.801152636947701 -16.760911247881182
431 62 1 -20.296849429370482 -6.74294875803456 -17.50131858669567
432 62 1 -19.862225978281483 -7.172659731863783 -17.198826846360166
433 62 1 -19.121541308155543 -7.178117245666101 -16.463861290789154
434 62 1 -19.605457437585816 -7.490298169533787 -16.634732100536375
435 63 1 -19.57087036606661 -6.752680357809534 -16.584556505480666
436 63 1 -19.010888268846955 -6.030751895573628 -16.275290232555953
437 63 1 -19.72088189577504 -6.187802451524341 -16.04715681335171
438 63 1 -20.18222569448676 -6.721194323864292 -15.494481575633413
439 63 1 -19.737751274300265 -7.339324522075206 -15.708853988525897
440 63 1 -19.10159639508775 -8.07041817614471 -15.351542556364258
441 63 1 -18.431018534236916 -8.549377218008095 -15.623137805177922
442 64 1 -18.675604709392005 -8.149202217270755 -16.31713170595538
443 64 1 -18.021931657930732 -7.575904468103379 -16.4646377749482
444 64 1 -17.378432131341242 -7.324645028080536 -16.63732455403092
445 64 1 -17.242820156734748 -7.241195808329661 -16.05192917771288
446 64 1 -17.723092809179803 -7.802735852753769 -15.825384419303527
447 64 1 -17.870692869038734 -8.402983299676801 -16.14307057629679
448 64 1 -17.933468310969516 -9.032160120603828 -16.5196226931536
449 65 1 -18.660685162742148 -8.950520290292943 -17.17320761511556
450 65 1 -19.13485876691676 -8.481518029945864 -17.309570729108795